
Running Job 1 of 2 input
qchem input_8851.0 /aimm/scratch/qchem8851/ 1
/home/epif/aimm/qcprog.exe_s input_8851.0 /aimm/scratch/qchem8851/
8388608
                  Welcome to Q-Chem
     A Quantum Leap Into The Future Of Chemistry


 Q-Chem 6.1, Q-Chem, Inc., Pleasanton, CA (2023)

 E. Epifanovsky,  A. T. B. Gilbert,  Xintian Feng,  Joonho Lee,  Yuezhi Mao,  
 N. Mardirossian,  P. Pokhilko,  A. White,  M. Wormit,  M. P. Coons,  
 A. L. Dempwolff,  Zhengting Gan,  D. Hait,  P. R. Horn,  L. D. Jacobson,  
 I. Kaliman,  J. Kussmann,  A. W. Lange,  Ka Un Lao,  D. S. Levine,  Jie Liu,  
 S. C. McKenzie,  A. F. Morrison,  K. D. Nanda,  F. Plasser,  D. R. Rehn,  
 M. L. Vidal,  Zhi-Qiang You,  Ying Zhu,  B. Alam,  B. Albrecht,  
 A. Aldossary,  E. Alguire,  J. H. Andersen,  V. Athavale,  D. Barton,  
 K. Begam,  A. Behn,  N. Bellonzi,  Y. A. Bernard,  E. J. Berquist,  
 H. Burton,  A. Carreras,  K. Carter-Fenk,  Mathew Chow,  Romit Chakraborty,  
 Chandrima Chakravarty,  Junhan Chen,  A. D. Chien,  K. D. Closser,  
 V. Cofer-Shabica,  L. Cunha,  S. Dasgupta,  Jia Deng,  M. de Wergifosse,  
 M. Diedenhofen,  Hainam Do,  S. Ehlert,  Po-Tung Fang,  S. Fatehi,  
 Qingguo Feng,  T. Friedhoff,  Thomas Froitzheim,  B. Ganoe,  J. Gayvert,  
 Qinghui Ge,  G. Gidofalvi,  M. Gimferrer,  M. Goldey,  Montgomery Gray,  
 J. Gomes,  C. Gonzalez-Espinoza,  S. Gulania,  A. Gunina,  J. A. Gyamfi,  
 M. W. D. Hanson-Heine,  P. H. P. Harbach,  A. W. Hauser,  M. F. Herbst,  
 M. Hernandez Vera,  M. Hodecker,  Z. C. Holden,  S. Houck,  Xunkun Huang,  
 Kerwin Hui,  B. C. Huynh,  K. Ikeda,  M. Ivanov,  Hyunjun Ji,  Zuxin Jin,  
 Hanjie Jiang,  Subrata Jana,  B. Kaduk,  S. Kaehler,  R. Kang,  
 K. Khistyaev,  Jaehoon Kim,  Yongbin Kim,  P. Klunzinger,  Z. Koczor-Benda,  
 Joong Hoon Koh,  D. Kosenkov,  Saikiran Kotaru,  L. Koulias,  T. Kowalczyk,  
 C. M. Krauter,  K. Kue,  A. Kunitsa,  T. Kus,  A. Landau,  K. V. Lawler,  
 D. Lefrancois,  S. Lehtola,  Rain Li,  Shaozhi Li,  Yi-Pei Li,  
 Jiashu Liang,  M. Liebenthal,  Hung-Hsuan Lin,  You-Sheng Lin,  Fenglai Liu,  
 Kuan-Yu Liu,  Xiao Liu,  M. Loipersberger,  A. Luenser,  C. Malbon,  
 A. Manjanath,  P. Manohar,  E. Mansoor,  S. F. Manzer,  Shan-Ping Mao,  
 A. V. Marenich,  T. Markovich,  S. Mason,  F. Matz,  S. A. Maurer,  
 P. F. McLaughlin,  M. F. S. J. Menger,  J.-M. Mewes,  S. A. Mewes,  
 P. Morgante,  Mohammad Mostafanejad,  J. W. Mullinax,  K. J. Oosterbaan,  
 G. Paran,  V. Parravicini,  Alexander C. Paul,  Suranjan K. Paul,  
 F. Pavosevic,  Zheng Pei,  S. Prager,  E. I. Proynov,  E. Ramos,  B. Rana,  
 A. E. Rask,  A. Rettig,  R. M. Richard,  F. Rob,  E. Rossomme,  T. Scheele,  
 M. Scheurer,  M. Schneider,  P. E. Schneider,  Tim K. Schramm,  N. Sergueev,  
 S. M. Sharada,  M. Sharma,  Hengyuan Shen,  W. Skomorowski,  D. W. Small,  
 C. J. Stein,  Alistair J. Sterling,  Yingli Su,  Yu-Chuan Su,  
 E. J. Sundstrom,  J. Talbot,  Zhen Tao,  J. Thirman,  Hung-Yi Tsai,  
 T. Tsuchimochi,  N. M. Tubman,  C. Utku,  S. P. Veccham,  O. Vydrov,  
 J. Wenzel,  Jonathan Wong,  J. Witte,  A. Yamada,  Chou-Hsun Yang,  Kun Yao,  
 S. Yeganeh,  S. R. Yost,  A. Zech,  F. Zeller,  Igor Ying Zhang,  
 Xing Zhang,  Yu Zhang,  D. Zuev,  A. Aspuru-Guzik,  A. T. Bell,  
 N. A. Besley,  K. B. Bravaya,  B. R. Brooks,  D. Casanova,  Jeng-Da Chai,  
 Hsing-Ta Chen,  S. Coriani,  C. J. Cramer,  A. E. DePrince, III,  
 R. A. DiStasio Jr.,  A. Dreuw,  B. D. Dunietz,  T. R. Furlani,  
 W. A. Goddard III,  S. Grimme,  S. Hammes-Schiffer,  T. Head-Gordon,  
 W. J. Hehre,  Chao-Ping Hsu,  T.-C. Jagau,  Yousung Jung,  A. Klamt,  
 Jing Kong,  D. S. Lambrecht,  Xiangyuan Li,  WanZhen Liang,  N. J. Mayhall,  
 C. W. McCurdy,  J. B. Neaton,  T. Neudecker,  C. Ochsenfeld,  
 J. A. Parkhill,  R. Peverati,  V. A. Rassolov,  Haisheng Ren,  Yihan Shao,  
 L. V. Slipchenko,  R. P. Steele,  J. E. Subotnik,  A. J. W. Thom,  
 A. Tkatchenko,  D. G. Truhlar,  T. Van Voorhis,  Fan Wang,  
 T. A. Wesolowski,  K. B. Whaley,  H. L. Woodcock III,  P. M. Zimmerman,  
 S. Faraji,  P. M. W. Gill,  M. Head-Gordon,  J. M. Herbert,  A. I. Krylov

 Contributors to earlier versions of Q-Chem not listed above: 
 R. D. Adamson,  B. Austin,  R. Baer,  J. Baker,  G. J. O. Beran,  
 K. Brandhorst,  S. T. Brown,  E. F. C. Byrd,  Arup K. Chakraborty,  
 G. K. L. Chan,  Chun-Min Chang,  Yunqing Chen,  C.-L. Cheng,  
 Siu Hung Chien,  D. M. Chipman,  D. L. Crittenden,  H. Dachsel,  
 R. J. Doerksen,  A. D. Dutoi,  R. G. Edgar,  J. Fosso-Tande,  
 L. Fusti-Molnar,  D. Ghosh,  A. Ghysels,  A. Golubeva-Zadorozhnaya,  
 J. Gonthier,  M. S. Gordon,  S. R. Gwaltney,  G. Hawkins,  J. E. Herr,  
 A. Heyden,  S. Hirata,  E. G. Hohenstein,  G. Kedziora,  F. J. Keil,  
 C. Kelley,  Jihan Kim,  R. A. King,  R. Z. Khaliullin,  P. P. Korambath,  
 W. Kurlancheek,  A. Laurent,  A. M. Lee,  M. S. Lee,  S. V. Levchenko,  
 Ching Yeh Lin,  D. Liotard,  E. Livshits,  R. C. Lochan,  I. Lotan,  
 L. A. Martinez-Martinez,  P. E. Maslen,  N. Nair,  D. P. O'Neill,  
 D. Neuhauser,  E. Neuscamman,  C. M. Oana,  R. Olivares-Amaya,  R. Olson,  
 T. M. Perrine,  B. Peters,  P. A. Pieniazek,  A. Prociuk,  Y. M. Rhee,  
 J. Ritchie,  M. A. Rohrdanz,  E. Rosta,  N. J. Russ,  H. F. Schaefer III,  
 M. W. Schmidt,  N. E. Schultz,  S. Sharma,  N. Shenvi,  C. D. Sherrill,  
 A. C. Simmonett,  A. Sodt,  T. Stein,  D. Stuck,  K. S. Thanthiriwatte,  
 V. Vanovschi,  L. Vogt,  Tao Wang,  A. Warshel,  M. A. Watson,  
 C. F. Williams,  Q. Wu,  X. Xu,  Jun Yang,  W. Zhang,  Yan Zhao

   Please cite Q-Chem as follows:
  "Software for the frontiers of quantum chemistry:
   An overview of developments in the Q-Chem 5 package"
   J. Chem. Phys. 155, 084801 (2021)
   https://doi.org/10.1063/5.0055522 (open access)

 Q-Chem 6.1.1 for Intel X86 EM64T Linux

 Parts of Q-Chem use Armadillo 9.900.5 (Nocturnal Misbehaviour).
 http://arma.sourceforge.net/

 Q-Chem begins on Sun Mar 17 17:06:51 2024  

 Host: iqmol
0

     Scratch files written to /aimm/scratch/qchem8851//
 Jan1824 |scratch|qcdevops|jenkins|workspace|build_RNUM 6466   
 Processing $rem in /opt/qchem/qc611/config/preferences:
 Processing $rem in /home/epif/.qchemrc:

 Checking the input file for inconsistencies... 	...done.

--------------------------------------------------------------
User input:
--------------------------------------------------------------
$molecule
0 1
O    0.0000000    0.0000000   -1.1962869
C    0.0000000    0.0000000    0.0000000
O    0.0000000    0.0000000    1.1962869
$end

$rem
BASIS  =  6-31+G*
GUI  =  2
JOB_TYPE  =  Optimization
METHOD  =  wB97XD
SCF_CONVERGENCE  =  8
$end



--------------------------------------------------------------
 ----------------------------------------------------------------
             Standard Nuclear Orientation (Angstroms)
    I     Atom           X                Y                Z
 ----------------------------------------------------------------
    1      O       0.0000000000     0.0000000000    -1.1962869000
    2      C       0.0000000000     0.0000000000     0.0000000000
    3      O       0.0000000000     0.0000000000     1.1962869000
 ----------------------------------------------------------------
 Molecular Point Group                 D*h   NOp =***
 Largest Abelian Subgroup              D2h   NOp =  1
 Nuclear Repulsion Energy =          56.62070891 hartrees
 There are       11 alpha and       11 beta electrons
 Requested basis set is 6-31+G(d)
 There are 15 shells and 57 basis functions

 Total QAlloc Memory Limit   8000 MB
 Mega-Array Size       188 MB
 MEM_STATIC part       192 MB

 -----------------------------------------------------------------------
                STARTING GEOMETRY OPTIMIZER USING LIBOPT3
                by Peter F. McLaughlin, Yu Zhang, Evgeny Epifanovsky
 -----------------------------------------------------------------------

              Initial Energy and Gradient Calculation
   -- Checking Topology for Ill-Behaving Coordinates --

 -------------------------------------------
   Coordinate       |  Removed | Additions 
 -------------------------------------------
	Bonds                     0          1
	Angles                    1          0
	Torsions                  0          0
	Co-Linear Type5s          0          0
	Co-Linear Type6s          0          0
 -------------------------------------------

 ** Ill-Behaving Topology Definitions (No action needed.) **

  Ill-Defined Angles Removed: 
   1   2   3

     Done Checking Topology
 ----------------------------------------------------------------
             Standard Nuclear Orientation (Angstroms)
    I     Atom           X                Y                Z
 ----------------------------------------------------------------
    1      O       0.0000000000     0.0000000000    -1.1962869000
    2      C       0.0000000000     0.0000000000     0.0000000000
    3      O       0.0000000000     0.0000000000     1.1962869000
 ----------------------------------------------------------------
 Molecular Point Group                 D*h   NOp =***
 Largest Abelian Subgroup              D2h   NOp =  1
 Nuclear Repulsion Energy =          56.62070891 hartrees
 There are       11 alpha and       11 beta electrons

                       Distance Matrix (Angstroms)
             O (  1)   C (  2)
   C (  2)  1.196287
   O (  3)  2.392574  1.196287
 
 Requested basis set is 6-31+G(d)
 There are 15 shells and 57 basis functions
 A cutoff of  1.0D-12 yielded    119 shell pairs
 There are      1751 function pairs
 Smallest overlap matrix eigenvalue = 1.15E-03

 Scale SEOQF with 1.000000e-01/1.000000e-01/1.000000e-01

 Standard Electronic Orientation quadrupole field applied
 Nucleus-field energy     =    -0.0000000025 hartrees
 Guess from superposition of atomic densities
 Warning:  Energy on first SCF cycle will be non-variational
 SAD guess density has 22.000000 electrons

 -----------------------------------------------------------------------
  General SCF calculation program by
  Eric Jon Sundstrom, Paul Horn, Yuezhi Mao, Dmitri Zuev, Alec White,
  David Stuck, Shaama M.S., Shane Yost, Joonho Lee, David Small,
  Daniel Levine, Susi Lehtola, Hugh Burton, Evgeny Epifanovsky,
  Bang C. Huynh
 -----------------------------------------------------------------------
 Exchange:     0.2220 Hartree-Fock + 1.0000 wB97X-D + LR-HF
 Correlation:  1.0000 wB97X-D
 Using SG-2 standard quadrature grid
 Dispersion:   Grimme D
 A restricted SCF calculation will be
 performed using DIIS
 SCF converges when DIIS error is below 1.0e-08
 ---------------------------------------
  Cycle       Energy         DIIS error
 ---------------------------------------
    1    -188.8744531606      9.35e-02  
    2    -188.4125136854      1.80e-02  
    3    -188.3434483374      2.52e-02  
    4    -188.5194863957      8.42e-04  
    5    -188.5197254590      2.83e-04  
    6    -188.5197530532      5.95e-05  
    7    -188.5197546703      6.52e-06  
    8    -188.5197547046      6.64e-07  
    9    -188.5197547051      7.97e-08  
   10    -188.5197547051      1.07e-08  
   11    -188.5197547051      7.59e-10  Convergence criterion met
 ---------------------------------------
 SCF time:   CPU 2.16s  wall 2.00s 
 SCF   energy =  -188.51975471
 Total energy =  -188.51975471
 
 --------------------------------------------------------------
 
                    Orbital Energies (a.u.)
 --------------------------------------------------------------
 
 Alpha MOs
 -- Occupied --
-19.3776 -19.3776 -10.5206  -1.2643  -1.2208  -0.6715  -0.6169  -0.6070
 -0.6070  -0.4651  -0.4651
 -- Virtual --
  0.0453   0.0761   0.0761   0.1033   0.1044   0.1044   0.1879   0.2497
  0.2680   0.2680   0.3141   0.3313   0.3313   0.3634   0.3977   0.7435
  0.7435   0.8230   0.8858   1.1078   1.1797   1.1797   1.2150   1.3097
  1.3097   1.3674   1.4730   1.4730   1.4731   1.4733   1.5273   1.8054
  1.8054   2.0800   2.0801   2.1477   2.1636   2.1636   2.7900   3.0080
  3.0080   3.3120   3.3253   4.1097   4.5957   4.7878
 --------------------------------------------------------------
 
          Ground-State Mulliken Net Atomic Charges

     Atom                 Charge (a.u.)
  ----------------------------------------
      1 O                    -0.375728
      2 C                     0.751457
      3 O                    -0.375728
  ----------------------------------------
  Sum of atomic charges =     0.000000

 -----------------------------------------------------------------
                    Cartesian Multipole Moments
 -----------------------------------------------------------------
    Charge (ESU x 10^10)
                -0.0000
    Dipole Moment (Debye)
         X       0.0000      Y       0.0000      Z       0.0000
       Tot       0.0000
    Quadrupole Moments (Debye-Ang)
        XX     -14.9505     XY      -0.0000     YY     -14.9505
        XZ       0.0000     YZ      -0.0000     ZZ     -19.7689
    Octopole Moments (Debye-Ang^2)
       XXX      -0.0000    XXY      -0.0000    XYY      -0.0000
       YYY      -0.0000    XXZ      -0.0000    XYZ      -0.0000
       YYZ      -0.0000    XZZ       0.0000    YZZ       0.0000
       ZZZ       0.0000
    Hexadecapole Moments (Debye-Ang^3)
      XXXX     -11.9963   XXXY      -0.0000   XXYY      -3.9988
      XYYY      -0.0000   YYYY     -11.9963   XXXZ      -0.0000
      XXYZ      -0.0000   XYYZ      -0.0000   YYYZ      -0.0000
      XXZZ     -20.1517   XYZZ      -0.0000   YYZZ     -20.1517
      XZZZ      -0.0000   YZZZ      -0.0000   ZZZZ    -109.7092
 -----------------------------------------------------------------
 Calculating analytic gradient of the SCF energy
 Gradient of SCF Energy
            1           2           3
    1   0.0000000  -0.0000000   0.0000000
    2  -0.0000000   0.0000000  -0.0000000
    3  -0.0627579  -0.0000000   0.0627579
 Max gradient component =       6.276E-02
 RMS gradient           =       2.958E-02
 Gradient time:  CPU 0.56 s  wall 0.56 s

 *****************************************************
             Starting BFGS Algorithm
 *****************************************************
            LIBOPT3 RUN PARAMETERS

  Geometry Optimization Coordinates :
	Delocalized Natural Internal Coordinates

  Step Length Selection Method :
	Eigenvector Following Algorithm

  Step Length Limiter :
	Root-Mean-Square of Gradient

  Convergence Criteria :
	Max Gradient Component    	3.00000000e-04
	Max Displacement Component	1.20000000e-03
	Absolute Energy Difference	1.00000000e-06

  Initial Hessian :
	Approximate Hessian - Simple Internal Coordinate Scaled

  Type of Verification :
	Verify with final updated Hessian
 *****************************************************

	OPTIMIZATION CYCLE:	1

 Scaling Magnitude of Eigenvalues
 	Minimum: -25.00000000	 Maximum: 25.00000000
 2 Hessian Eigenvalues to form next step
   0.50000000   0.50000000


 Minimum Search taking a RFO step
 Searching for Lambda that minimizes along all modes
	Value of Lambda   -0.00519737
	Norm  of Stepsize  0.10142882
	RMS   of Stepsize  0.07172100

	Performing Iterative Coordinate Back-Transformation

	  Starting from Previous Position

	  iter:	0	rms: 1.9519984904e-02	maxdev: 4.1408141082e-02
	  iter:	1	rms: 1.9110556822e-16	maxdev: 4.1869132232e-16	 Success!

	Finished Iterative Coordinate Back-Transformation
 ----------------------------------------------------------------
             Standard Nuclear Orientation (Angstroms)
    I     Atom           X                Y                Z
 ----------------------------------------------------------------
    1      O       0.0000000000     0.0000000000    -1.1743746554
    2      C       0.0000000000     0.0000000000     0.0000000000
    3      O       0.0000000000     0.0000000000     1.1743746554
 ----------------------------------------------------------------
 Molecular Point Group                 D*h   NOp =***
 Largest Abelian Subgroup              D2h   NOp =  1
 Nuclear Repulsion Energy =          57.67718173 hartrees
 There are       11 alpha and       11 beta electrons

                       Distance Matrix (Angstroms)
             O (  1)   C (  2)
   C (  2)  1.174375
   O (  3)  2.348749  1.174375
 
 Applying Cartesian multipole field
    Component          Value
    ---------          -----
     (2,0,0)        1.00000E-11
     (0,2,0)        2.00000E-11
     (0,0,2)       -3.00000E-11
 Nucleus-field energy     =-2.3640263427e-09 hartrees
 Requested basis set is 6-31+G(d)
 There are 15 shells and 57 basis functions
 A cutoff of  1.0D-12 yielded    119 shell pairs
 There are      1751 function pairs
 Smallest overlap matrix eigenvalue = 1.06E-03
 Guess MOs from SCF MO coefficient file

 -----------------------------------------------------------------------
  General SCF calculation program by
  Eric Jon Sundstrom, Paul Horn, Yuezhi Mao, Dmitri Zuev, Alec White,
  David Stuck, Shaama M.S., Shane Yost, Joonho Lee, David Small,
  Daniel Levine, Susi Lehtola, Hugh Burton, Evgeny Epifanovsky,
  Bang C. Huynh
 -----------------------------------------------------------------------
 Exchange:     0.2220 Hartree-Fock + 1.0000 wB97X-D + LR-HF
 Correlation:  1.0000 wB97X-D
 Using SG-2 standard quadrature grid
 Dispersion:   Grimme D
 A restricted SCF calculation will be
 performed using DIIS
 SCF converges when DIIS error is below 1.0e-08
 ---------------------------------------
  Cycle       Energy         DIIS error
 ---------------------------------------
    1    -188.5226276027      1.18e-03  
    2    -188.5232063187      3.45e-04  
    3    -188.5232477288      1.43e-04  
    4    -188.5232534131      6.69e-05  
    5    -188.5232547717      1.51e-05  
    6    -188.5232548677      5.96e-07  
    7    -188.5232548680      9.39e-08  
    8    -188.5232548680      1.30e-08  
    9    -188.5232548680      6.85e-10  Convergence criterion met
 ---------------------------------------
 SCF time:   CPU 1.75s  wall 2.00s 
 SCF   energy =  -188.52325487
 Total energy =  -188.52325487
 
 --------------------------------------------------------------
 
                    Orbital Energies (a.u.)
 --------------------------------------------------------------
 
 Alpha MOs
 -- Occupied --
-19.3728 -19.3727 -10.5120  -1.2742  -1.2305  -0.6674  -0.6178  -0.6143
 -0.6143  -0.4659  -0.4659
 -- Virtual --
  0.0478   0.0886   0.0886   0.1031   0.1060   0.1060   0.1970   0.2526
  0.2684   0.2684   0.3153   0.3312   0.3312   0.3636   0.4105   0.7481
  0.7481   0.8169   0.9402   1.1116   1.1831   1.1831   1.2126   1.3100
  1.3100   1.3717   1.4649   1.4650   1.4870   1.4870   1.5356   1.8036
  1.8036   2.0990   2.0991   2.1800   2.1952   2.1952   2.8700   3.0487
  3.0487   3.3405   3.3724   4.1156   4.6306   4.8418
 --------------------------------------------------------------
 
          Ground-State Mulliken Net Atomic Charges

     Atom                 Charge (a.u.)
  ----------------------------------------
      1 O                    -0.374837
      2 C                     0.749674
      3 O                    -0.374837
  ----------------------------------------
  Sum of atomic charges =     0.000000

 -----------------------------------------------------------------
                    Cartesian Multipole Moments
 -----------------------------------------------------------------
    Charge (ESU x 10^10)
                 0.0000
    Dipole Moment (Debye)
         X       0.0000      Y      -0.0000      Z      -0.0000
       Tot       0.0000
    Quadrupole Moments (Debye-Ang)
        XX     -14.8353     XY      -0.0000     YY     -14.8353
        XZ      -0.0000     YZ       0.0000     ZZ     -19.6874
    Octopole Moments (Debye-Ang^2)
       XXX       0.0000    XXY       0.0000    XYY       0.0000
       YYY       0.0000    XXZ       0.0000    XYZ       0.0000
       YYZ       0.0000    XZZ      -0.0000    YZZ      -0.0000
       ZZZ      -0.0000
    Hexadecapole Moments (Debye-Ang^3)
      XXXX     -11.7859   XXXY      -0.0000   XXYY      -3.9286
      XYYY      -0.0000   YYYY     -11.7859   XXXZ      -0.0000
      XXYZ       0.0000   XYYZ      -0.0000   YYYZ       0.0000
      XXZZ     -19.4978   XYZZ       0.0000   YYZZ     -19.4978
      XZZZ       0.0000   YZZZ       0.0000   ZZZZ    -106.3653
 -----------------------------------------------------------------
 Calculating analytic gradient of the SCF energy
 Gradient of SCF Energy
            1           2           3
    1   0.0000000  -0.0000000   0.0000000
    2   0.0000000   0.0000000  -0.0000000
    3  -0.0206663   0.0000000   0.0206663
 Max gradient component =       2.067E-02
 RMS gradient           =       9.742E-03
 Gradient time:  CPU 0.56 s  wall 0.56 s

     Step 1	:
        Energy is -188.5232548680
                            Maximum         Tolerance       Converged?
         Gradient           1.46132908e-02	3.00000000e-04	false
         Displacement       8.78399321e-02	1.20000000e-03	false
         Energy change      3.50016292e-03	1.00000000e-06	false


	OPTIMIZATION CYCLE:	2

 Scaling Magnitude of Eigenvalues
 	Minimum: -25.00000000	 Maximum: 25.00000000
 2 Hessian Eigenvalues to form next step
   0.33883464   0.50000000


 Minimum Search taking a RFO step
 Searching for Lambda that minimizes along all modes
	Value of Lambda   -0.00083825
	Norm  of Stepsize  0.04967713
	RMS   of Stepsize  0.03512704

	Performing Iterative Coordinate Back-Transformation

	  Starting from Previous Position

	  iter:	0	rms: 9.5603682465e-03	maxdev: 2.0280603657e-02
	  iter:	1	rms: 8.5465008284e-17	maxdev: 1.8129866073e-16	 Success!

	Finished Iterative Coordinate Back-Transformation
 ----------------------------------------------------------------
             Standard Nuclear Orientation (Angstroms)
    I     Atom           X                Y                Z
 ----------------------------------------------------------------
    1      O       0.0000000000     0.0000000000    -1.1636426221
    2      C       0.0000000000     0.0000000000    -0.0000000000
    3      O       0.0000000000     0.0000000000     1.1636426221
 ----------------------------------------------------------------
 Molecular Point Group                 D*h   NOp =***
 Largest Abelian Subgroup              D2h   NOp =  1
 Nuclear Repulsion Energy =          58.20912953 hartrees
 There are       11 alpha and       11 beta electrons

                       Distance Matrix (Angstroms)
             O (  1)   C (  2)
   C (  2)  1.163643
   O (  3)  2.327285  1.163643
 
 Applying Cartesian multipole field
    Component          Value
    ---------          -----
     (2,0,0)        1.00000E-11
     (0,2,0)        2.00000E-11
     (0,0,2)       -3.00000E-11
 Nucleus-field energy     =-2.3210164164e-09 hartrees
 Requested basis set is 6-31+G(d)
 There are 15 shells and 57 basis functions
 A cutoff of  1.0D-12 yielded    119 shell pairs
 There are      1751 function pairs
 Smallest overlap matrix eigenvalue = 1.02E-03
 Guess MOs from SCF MO coefficient file

 -----------------------------------------------------------------------
  General SCF calculation program by
  Eric Jon Sundstrom, Paul Horn, Yuezhi Mao, Dmitri Zuev, Alec White,
  David Stuck, Shaama M.S., Shane Yost, Joonho Lee, David Small,
  Daniel Levine, Susi Lehtola, Hugh Burton, Evgeny Epifanovsky,
  Bang C. Huynh
 -----------------------------------------------------------------------
 Exchange:     0.2220 Hartree-Fock + 1.0000 wB97X-D + LR-HF
 Correlation:  1.0000 wB97X-D
 Using SG-2 standard quadrature grid
 Dispersion:   Grimme D
 A restricted SCF calculation will be
 performed using DIIS
 SCF converges when DIIS error is below 1.0e-08
 ---------------------------------------
  Cycle       Energy         DIIS error
 ---------------------------------------
    1    -188.5234733603      5.96e-04  
    2    -188.5236171954      1.74e-04  
    3    -188.5236275196      7.03e-05  
    4    -188.5236289108      3.22e-05  
    5    -188.5236292239      7.27e-06  
    6    -188.5236292461      2.76e-07  
    7    -188.5236292462      4.16e-08  
    8    -188.5236292462      5.27e-09  Convergence criterion met
 ---------------------------------------
 SCF time:   CPU 1.67s  wall 2.00s 
 SCF   energy =  -188.52362925
 Total energy =  -188.52362925
 
 --------------------------------------------------------------
 
                    Orbital Energies (a.u.)
 --------------------------------------------------------------
 
 Alpha MOs
 -- Occupied --
-19.3703 -19.3703 -10.5077  -1.2790  -1.2353  -0.6653  -0.6182  -0.6180
 -0.6180  -0.4663  -0.4663
 -- Virtual --
  0.0489   0.0933   0.0933   0.1031   0.1085   0.1085   0.2010   0.2542
  0.2686   0.2686   0.3159   0.3312   0.3312   0.3637   0.4174   0.7505
  0.7505   0.8140   0.9674   1.1136   1.1845   1.1845   1.2116   1.3100
  1.3100   1.3746   1.4609   1.4610   1.4946   1.4946   1.5402   1.8027
  1.8027   2.1086   2.1087   2.1956   2.2116   2.2116   2.9101   3.0684
  3.0684   3.3532   3.3984   4.1197   4.6505   4.8691
 --------------------------------------------------------------
 
          Ground-State Mulliken Net Atomic Charges

     Atom                 Charge (a.u.)
  ----------------------------------------
      1 O                    -0.374399
      2 C                     0.748797
      3 O                    -0.374399
  ----------------------------------------
  Sum of atomic charges =     0.000000

 -----------------------------------------------------------------
                    Cartesian Multipole Moments
 -----------------------------------------------------------------
    Charge (ESU x 10^10)
                 0.0000
    Dipole Moment (Debye)
         X       0.0000      Y      -0.0000      Z      -0.0000
       Tot       0.0000
    Quadrupole Moments (Debye-Ang)
        XX     -14.7780     XY      -0.0000     YY     -14.7780
        XZ      -0.0000     YZ      -0.0000     ZZ     -19.6452
    Octopole Moments (Debye-Ang^2)
       XXX      -0.0000    XXY       0.0000    XYY      -0.0000
       YYY       0.0000    XXZ       0.0000    XYZ      -0.0000
       YYZ       0.0000    XZZ      -0.0000    YZZ      -0.0000
       ZZZ      -0.0000
    Hexadecapole Moments (Debye-Ang^3)
      XXXX     -11.6823   XXXY      -0.0000   XXYY      -3.8941
      XYYY      -0.0000   YYYY     -11.6823   XXXZ      -0.0000
      XXYZ      -0.0000   XYYZ      -0.0000   YYYZ      -0.0000
      XXZZ     -19.1827   XYZZ      -0.0000   YYZZ     -19.1827
      XZZZ      -0.0000   YZZZ      -0.0000   ZZZZ    -104.7404
 -----------------------------------------------------------------
 Calculating analytic gradient of the SCF energy
 Gradient of SCF Energy
            1           2           3
    1  -0.0000000   0.0000000   0.0000000
    2  -0.0000000  -0.0000000   0.0000000
    3   0.0025047   0.0000000  -0.0025047
 Max gradient component =       2.505E-03
 RMS gradient           =       1.181E-03
 Gradient time:  CPU 0.56 s  wall 0.56 s

     Step 2	:
        Energy is -188.5236292462
                            Maximum         Tolerance       Converged?
         Gradient           1.77107493e-03	3.00000000e-04	false
         Displacement       4.30216571e-02	1.20000000e-03	false
         Energy change      3.74378219e-04	1.00000000e-06	false


	OPTIMIZATION CYCLE:	3

 Scaling Magnitude of Eigenvalues
 	Minimum: -25.00000000	 Maximum: 25.00000000
 2 Hessian Eigenvalues to form next step
   0.38083995   0.50000000


 Minimum Search taking a RFO step
 Searching for Lambda that minimizes along all modes
	Value of Lambda   -0.00001098
	Norm  of Stepsize  0.00536972
	RMS   of Stepsize  0.00379696

	Performing Iterative Coordinate Back-Transformation

	  Starting from Previous Position

	  iter:	0	rms: 1.0334022343e-03	maxdev: 2.1921771984e-03
	  iter:	1	rms: 8.5465008284e-17	maxdev: 1.8129866073e-16	 Success!

	Finished Iterative Coordinate Back-Transformation
 ----------------------------------------------------------------
             Standard Nuclear Orientation (Angstroms)
    I     Atom           X                Y                Z
 ----------------------------------------------------------------
    1      O       0.0000000000     0.0000000000    -1.1648026723
    2      C       0.0000000000     0.0000000000    -0.0000000000
    3      O       0.0000000000     0.0000000000     1.1648026723
 ----------------------------------------------------------------
 Molecular Point Group                 D*h   NOp =***
 Largest Abelian Subgroup              D2h   NOp =  1
 Nuclear Repulsion Energy =          58.15115756 hartrees
 There are       11 alpha and       11 beta electrons

                       Distance Matrix (Angstroms)
             O (  1)   C (  2)
   C (  2)  1.164803
   O (  3)  2.329605  1.164803
 
 Applying Cartesian multipole field
    Component          Value
    ---------          -----
     (2,0,0)        1.00000E-11
     (0,2,0)        2.00000E-11
     (0,0,2)       -3.00000E-11
 Nucleus-field energy     =-2.3256464250e-09 hartrees
 Requested basis set is 6-31+G(d)
 There are 15 shells and 57 basis functions
 A cutoff of  1.0D-12 yielded    119 shell pairs
 There are      1751 function pairs
 Smallest overlap matrix eigenvalue = 1.02E-03
 Guess MOs from SCF MO coefficient file

 -----------------------------------------------------------------------
  General SCF calculation program by
  Eric Jon Sundstrom, Paul Horn, Yuezhi Mao, Dmitri Zuev, Alec White,
  David Stuck, Shaama M.S., Shane Yost, Joonho Lee, David Small,
  Daniel Levine, Susi Lehtola, Hugh Burton, Evgeny Epifanovsky,
  Bang C. Huynh
 -----------------------------------------------------------------------
 Exchange:     0.2220 Hartree-Fock + 1.0000 wB97X-D + LR-HF
 Correlation:  1.0000 wB97X-D
 Using SG-2 standard quadrature grid
 Dispersion:   Grimme D
 A restricted SCF calculation will be
 performed using DIIS
 SCF converges when DIIS error is below 1.0e-08
 ---------------------------------------
  Cycle       Energy         DIIS error
 ---------------------------------------
    1    -188.5236326941      6.50e-05  
    2    -188.5236343960      1.89e-05  
    3    -188.5236345177      7.78e-06  
    4    -188.5236345345      3.60e-06  
    5    -188.5236345384      7.78e-07  
    6    -188.5236345386      3.04e-08  
    7    -188.5236345386      4.54e-09  Convergence criterion met
 ---------------------------------------
 SCF time:   CPU 1.39s  wall 1.00s 
 SCF   energy =  -188.52363454
 Total energy =  -188.52363454
 
 --------------------------------------------------------------
 
                    Orbital Energies (a.u.)
 --------------------------------------------------------------
 
 Alpha MOs
 -- Occupied --
-19.3706 -19.3706 -10.5082  -1.2785  -1.2348  -0.6655  -0.6182  -0.6176
 -0.6176  -0.4662  -0.4662
 -- Virtual --
  0.0488   0.0928   0.0928   0.1031   0.1082   0.1082   0.2006   0.2540
  0.2686   0.2686   0.3159   0.3312   0.3312   0.3637   0.4166   0.7502
  0.7502   0.8143   0.9644   1.1133   1.1843   1.1843   1.2117   1.3100
  1.3100   1.3742   1.4613   1.4614   1.4938   1.4938   1.5397   1.8028
  1.8028   2.1076   2.1077   2.1939   2.2098   2.2098   2.9058   3.0663
  3.0663   3.3518   3.3955   4.1192   4.6482   4.8661
 --------------------------------------------------------------
 
          Ground-State Mulliken Net Atomic Charges

     Atom                 Charge (a.u.)
  ----------------------------------------
      1 O                    -0.374445
      2 C                     0.748889
      3 O                    -0.374445
  ----------------------------------------
  Sum of atomic charges =     0.000000

 -----------------------------------------------------------------
                    Cartesian Multipole Moments
 -----------------------------------------------------------------
    Charge (ESU x 10^10)
                -0.0000
    Dipole Moment (Debye)
         X       0.0000      Y      -0.0000      Z       0.0000
       Tot       0.0000
    Quadrupole Moments (Debye-Ang)
        XX     -14.7843     XY      -0.0000     YY     -14.7843
        XZ       0.0000     YZ      -0.0000     ZZ     -19.6498
    Octopole Moments (Debye-Ang^2)
       XXX       0.0000    XXY       0.0000    XYY       0.0000
       YYY       0.0000    XXZ      -0.0000    XYZ      -0.0000
       YYZ      -0.0000    XZZ       0.0000    YZZ      -0.0000
       ZZZ       0.0000
    Hexadecapole Moments (Debye-Ang^3)
      XXXX     -11.6935   XXXY      -0.0000   XXYY      -3.8978
      XYYY      -0.0000   YYYY     -11.6935   XXXZ       0.0000
      XXYZ      -0.0000   XYYZ       0.0000   YYYZ      -0.0000
      XXZZ     -19.2166   XYZZ      -0.0000   YYZZ     -19.2166
      XZZZ       0.0000   YZZZ      -0.0000   ZZZZ    -104.9156
 -----------------------------------------------------------------
 Calculating analytic gradient of the SCF energy
 Gradient of SCF Energy
            1           2           3
    1   0.0000000   0.0000000  -0.0000000
    2  -0.0000000   0.0000000  -0.0000000
    3  -0.0000869  -0.0000000   0.0000869
 Max gradient component =       8.688E-05
 RMS gradient           =       4.096E-05
 Gradient time:  CPU 0.56 s  wall 0.56 s

     Step 3	:
        Energy is -188.5236345386
                            Maximum         Tolerance       Converged?
         Gradient           6.14332107e-05	3.00000000e-04	true
         Displacement       4.65031009e-03	1.20000000e-03	false
         Energy change      5.29241274e-06	1.00000000e-06	false


	OPTIMIZATION CYCLE:	4

 Scaling Magnitude of Eigenvalues
 	Minimum: -25.00000000	 Maximum: 25.00000000
 2 Hessian Eigenvalues to form next step
   0.39406145   0.50000000


 Minimum Search taking a RFO step
 Searching for Lambda that minimizes along all modes
	Value of Lambda   -0.00000001
	Norm  of Stepsize  0.00018001
	RMS   of Stepsize  0.00012729

	Performing Iterative Coordinate Back-Transformation

	  Starting from Previous Position

	  iter:	0	rms: 3.4643790777e-05	maxdev: 7.3490748941e-05
	  iter:	1	rms: 2.4173154765e-16	maxdev: 5.7194298263e-16	 Success!

	Finished Iterative Coordinate Back-Transformation
 ----------------------------------------------------------------
             Standard Nuclear Orientation (Angstroms)
    I     Atom           X                Y                Z
 ----------------------------------------------------------------
    1      O       0.0000000000     0.0000000000    -1.1647637829
    2      C       0.0000000000     0.0000000000     0.0000000002
    3      O       0.0000000000     0.0000000000     1.1647637827
 ----------------------------------------------------------------
 Molecular Point Group                 D*h   NOp =***
 Largest Abelian Subgroup              D2h   NOp =  1
 Nuclear Repulsion Energy =          58.15309915 hartrees
 There are       11 alpha and       11 beta electrons

                       Distance Matrix (Angstroms)
             O (  1)   C (  2)
   C (  2)  1.164764
   O (  3)  2.329528  1.164764
 
 Applying Cartesian multipole field
    Component          Value
    ---------          -----
     (2,0,0)        1.00000E-11
     (0,2,0)        2.00000E-11
     (0,0,2)       -3.00000E-11
 Nucleus-field energy     =-2.3254911337e-09 hartrees
 Requested basis set is 6-31+G(d)
 There are 15 shells and 57 basis functions
 A cutoff of  1.0D-12 yielded    119 shell pairs
 There are      1751 function pairs
 Smallest overlap matrix eigenvalue = 1.02E-03
 Guess MOs from SCF MO coefficient file

 -----------------------------------------------------------------------
  General SCF calculation program by
  Eric Jon Sundstrom, Paul Horn, Yuezhi Mao, Dmitri Zuev, Alec White,
  David Stuck, Shaama M.S., Shane Yost, Joonho Lee, David Small,
  Daniel Levine, Susi Lehtola, Hugh Burton, Evgeny Epifanovsky,
  Bang C. Huynh
 -----------------------------------------------------------------------
 Exchange:     0.2220 Hartree-Fock + 1.0000 wB97X-D + LR-HF
 Correlation:  1.0000 wB97X-D
 Using SG-2 standard quadrature grid
 Dispersion:   Grimme D
 A restricted SCF calculation will be
 performed using DIIS
 SCF converges when DIIS error is below 1.0e-08
 ---------------------------------------
  Cycle       Energy         DIIS error
 ---------------------------------------
    1    -188.5236345430      2.18e-06  
    2    -188.5236345449      6.33e-07  
    3    -188.5236345450      2.60e-07  
    4    -188.5236345450      1.20e-07  
    5    -188.5236345450      2.61e-08  
    6    -188.5236345450      1.02e-09  Convergence criterion met
 ---------------------------------------
 SCF time:   CPU 1.20s  wall 1.00s 
 SCF   energy =  -188.52363455
 Total energy =  -188.52363455
 
 --------------------------------------------------------------
 
                    Orbital Energies (a.u.)
 --------------------------------------------------------------
 
 Alpha MOs
 -- Occupied --
-19.3706 -19.3706 -10.5081  -1.2785  -1.2348  -0.6655  -0.6182  -0.6177
 -0.6177  -0.4662  -0.4662
 -- Virtual --
  0.0488   0.0929   0.0929   0.1031   0.1082   0.1082   0.2006   0.2540
  0.2686   0.2686   0.3159   0.3312   0.3312   0.3637   0.4166   0.7502
  0.7502   0.8143   0.9645   1.1133   1.1843   1.1843   1.2117   1.3100
  1.3100   1.3742   1.4613   1.4614   1.4938   1.4938   1.5397   1.8028
  1.8028   2.1076   2.1077   2.1940   2.2098   2.2098   2.9059   3.0664
  3.0664   3.3519   3.3956   4.1192   4.6483   4.8662
 --------------------------------------------------------------
 
          Ground-State Mulliken Net Atomic Charges

     Atom                 Charge (a.u.)
  ----------------------------------------
      1 O                    -0.374443
      2 C                     0.748886
      3 O                    -0.374443
  ----------------------------------------
  Sum of atomic charges =     0.000000

 -----------------------------------------------------------------
                    Cartesian Multipole Moments
 -----------------------------------------------------------------
    Charge (ESU x 10^10)
                -0.0000
    Dipole Moment (Debye)
         X      -0.0000      Y      -0.0000      Z       0.0000
       Tot       0.0000
    Quadrupole Moments (Debye-Ang)
        XX     -14.7840     XY      -0.0000     YY     -14.7840
        XZ      -0.0000     YZ       0.0000     ZZ     -19.6497
    Octopole Moments (Debye-Ang^2)
       XXX       0.0000    XXY      -0.0000    XYY       0.0000
       YYY      -0.0000    XXZ       0.0000    XYZ       0.0000
       YYZ       0.0000    XZZ      -0.0000    YZZ       0.0000
       ZZZ       0.0000
    Hexadecapole Moments (Debye-Ang^3)
      XXXX     -11.6931   XXXY      -0.0000   XXYY      -3.8977
      XYYY      -0.0000   YYYY     -11.6931   XXXZ      -0.0000
      XXYZ      -0.0000   XYYZ      -0.0000   YYYZ      -0.0000
      XXZZ     -19.2155   XYZZ      -0.0000   YYZZ     -19.2155
      XZZZ      -0.0000   YZZZ       0.0000   ZZZZ    -104.9097
 -----------------------------------------------------------------
 Calculating analytic gradient of the SCF energy
 Gradient of SCF Energy
            1           2           3
    1  -0.0000000   0.0000000  -0.0000000
    2   0.0000000  -0.0000000   0.0000000
    3  -0.0000003  -0.0000000   0.0000003
 Max gradient component =       3.449E-07
 RMS gradient           =       1.625E-07
 Gradient time:  CPU 0.56 s  wall 0.56 s

     Step 4	:
        Energy is -188.5236345450
                            Maximum         Tolerance       Converged?
         Gradient           2.43867725e-07	3.00000000e-04	true
         Displacement       1.55897421e-04	1.20000000e-03	true
         Energy change      6.41315978e-09	1.00000000e-06	true

	 Optimization Converged in 4 cycles

 *****************************************************
             End of BFGS Algorithm
 *****************************************************
		----------------------------------
		   Verification of Optimization
		----------------------------------

 Eigenvalues of Hessian in Optimization Verification
   0.39249831   0.50000000


 Found a minimum
		---------------------------------
		       End of Verification
		---------------------------------

 Final energy is -188.523634545041

	******************************
	**  OPTIMIZATION CONVERGED  **
	******************************
 ----------------------------------------------------------------
             Standard Nuclear Orientation (Angstroms)
    I     Atom           X                Y                Z
 ----------------------------------------------------------------
    1      O       0.0000000000     0.0000000000    -1.1647637829
    2      C       0.0000000000     0.0000000000     0.0000000002
    3      O       0.0000000000     0.0000000000     1.1647637827
 ----------------------------------------------------------------
 Molecular Point Group                 D*h   NOp =***
 Largest Abelian Subgroup              D2h   NOp =  1
 Nuclear Repulsion Energy =          58.15309915 hartrees
 There are       11 alpha and       11 beta electrons

Z-matrix Print:
$molecule
0 1
C 
O  1 1.164764
O  1 1.164764 2 180.000000
$end

 -----------------------------------------------------------------------
                  END OF GEOMETRY OPTIMIZER USING LIBOPT3               
 -----------------------------------------------------------------------
 Total job time:  11.25s(wall), 11.24s(cpu) 
 Sun Mar 17 17:07:02 2024

        *************************************************************
        *                                                           *
        *  Thank you very much for using Q-Chem.  Have a nice day.  *
        *                                                           *
        *************************************************************



Running Job 2 of 2 input
qchem input_8851.1 /aimm/scratch/qchem8851/ 1
/home/epif/aimm/qcprog.exe_s input_8851.1 /aimm/scratch/qchem8851/
8388608
                  Welcome to Q-Chem
     A Quantum Leap Into The Future Of Chemistry


 Q-Chem 6.1, Q-Chem, Inc., Pleasanton, CA (2023)

 E. Epifanovsky,  A. T. B. Gilbert,  Xintian Feng,  Joonho Lee,  Yuezhi Mao,  
 N. Mardirossian,  P. Pokhilko,  A. White,  M. Wormit,  M. P. Coons,  
 A. L. Dempwolff,  Zhengting Gan,  D. Hait,  P. R. Horn,  L. D. Jacobson,  
 I. Kaliman,  J. Kussmann,  A. W. Lange,  Ka Un Lao,  D. S. Levine,  Jie Liu,  
 S. C. McKenzie,  A. F. Morrison,  K. D. Nanda,  F. Plasser,  D. R. Rehn,  
 M. L. Vidal,  Zhi-Qiang You,  Ying Zhu,  B. Alam,  B. Albrecht,  
 A. Aldossary,  E. Alguire,  J. H. Andersen,  V. Athavale,  D. Barton,  
 K. Begam,  A. Behn,  N. Bellonzi,  Y. A. Bernard,  E. J. Berquist,  
 H. Burton,  A. Carreras,  K. Carter-Fenk,  Mathew Chow,  Romit Chakraborty,  
 Chandrima Chakravarty,  Junhan Chen,  A. D. Chien,  K. D. Closser,  
 V. Cofer-Shabica,  L. Cunha,  S. Dasgupta,  Jia Deng,  M. de Wergifosse,  
 M. Diedenhofen,  Hainam Do,  S. Ehlert,  Po-Tung Fang,  S. Fatehi,  
 Qingguo Feng,  T. Friedhoff,  Thomas Froitzheim,  B. Ganoe,  J. Gayvert,  
 Qinghui Ge,  G. Gidofalvi,  M. Gimferrer,  M. Goldey,  Montgomery Gray,  
 J. Gomes,  C. Gonzalez-Espinoza,  S. Gulania,  A. Gunina,  J. A. Gyamfi,  
 M. W. D. Hanson-Heine,  P. H. P. Harbach,  A. W. Hauser,  M. F. Herbst,  
 M. Hernandez Vera,  M. Hodecker,  Z. C. Holden,  S. Houck,  Xunkun Huang,  
 Kerwin Hui,  B. C. Huynh,  K. Ikeda,  M. Ivanov,  Hyunjun Ji,  Zuxin Jin,  
 Hanjie Jiang,  Subrata Jana,  B. Kaduk,  S. Kaehler,  R. Kang,  
 K. Khistyaev,  Jaehoon Kim,  Yongbin Kim,  P. Klunzinger,  Z. Koczor-Benda,  
 Joong Hoon Koh,  D. Kosenkov,  Saikiran Kotaru,  L. Koulias,  T. Kowalczyk,  
 C. M. Krauter,  K. Kue,  A. Kunitsa,  T. Kus,  A. Landau,  K. V. Lawler,  
 D. Lefrancois,  S. Lehtola,  Rain Li,  Shaozhi Li,  Yi-Pei Li,  
 Jiashu Liang,  M. Liebenthal,  Hung-Hsuan Lin,  You-Sheng Lin,  Fenglai Liu,  
 Kuan-Yu Liu,  Xiao Liu,  M. Loipersberger,  A. Luenser,  C. Malbon,  
 A. Manjanath,  P. Manohar,  E. Mansoor,  S. F. Manzer,  Shan-Ping Mao,  
 A. V. Marenich,  T. Markovich,  S. Mason,  F. Matz,  S. A. Maurer,  
 P. F. McLaughlin,  M. F. S. J. Menger,  J.-M. Mewes,  S. A. Mewes,  
 P. Morgante,  Mohammad Mostafanejad,  J. W. Mullinax,  K. J. Oosterbaan,  
 G. Paran,  V. Parravicini,  Alexander C. Paul,  Suranjan K. Paul,  
 F. Pavosevic,  Zheng Pei,  S. Prager,  E. I. Proynov,  E. Ramos,  B. Rana,  
 A. E. Rask,  A. Rettig,  R. M. Richard,  F. Rob,  E. Rossomme,  T. Scheele,  
 M. Scheurer,  M. Schneider,  P. E. Schneider,  Tim K. Schramm,  N. Sergueev,  
 S. M. Sharada,  M. Sharma,  Hengyuan Shen,  W. Skomorowski,  D. W. Small,  
 C. J. Stein,  Alistair J. Sterling,  Yingli Su,  Yu-Chuan Su,  
 E. J. Sundstrom,  J. Talbot,  Zhen Tao,  J. Thirman,  Hung-Yi Tsai,  
 T. Tsuchimochi,  N. M. Tubman,  C. Utku,  S. P. Veccham,  O. Vydrov,  
 J. Wenzel,  Jonathan Wong,  J. Witte,  A. Yamada,  Chou-Hsun Yang,  Kun Yao,  
 S. Yeganeh,  S. R. Yost,  A. Zech,  F. Zeller,  Igor Ying Zhang,  
 Xing Zhang,  Yu Zhang,  D. Zuev,  A. Aspuru-Guzik,  A. T. Bell,  
 N. A. Besley,  K. B. Bravaya,  B. R. Brooks,  D. Casanova,  Jeng-Da Chai,  
 Hsing-Ta Chen,  S. Coriani,  C. J. Cramer,  A. E. DePrince, III,  
 R. A. DiStasio Jr.,  A. Dreuw,  B. D. Dunietz,  T. R. Furlani,  
 W. A. Goddard III,  S. Grimme,  S. Hammes-Schiffer,  T. Head-Gordon,  
 W. J. Hehre,  Chao-Ping Hsu,  T.-C. Jagau,  Yousung Jung,  A. Klamt,  
 Jing Kong,  D. S. Lambrecht,  Xiangyuan Li,  WanZhen Liang,  N. J. Mayhall,  
 C. W. McCurdy,  J. B. Neaton,  T. Neudecker,  C. Ochsenfeld,  
 J. A. Parkhill,  R. Peverati,  V. A. Rassolov,  Haisheng Ren,  Yihan Shao,  
 L. V. Slipchenko,  R. P. Steele,  J. E. Subotnik,  A. J. W. Thom,  
 A. Tkatchenko,  D. G. Truhlar,  T. Van Voorhis,  Fan Wang,  
 T. A. Wesolowski,  K. B. Whaley,  H. L. Woodcock III,  P. M. Zimmerman,  
 S. Faraji,  P. M. W. Gill,  M. Head-Gordon,  J. M. Herbert,  A. I. Krylov

 Contributors to earlier versions of Q-Chem not listed above: 
 R. D. Adamson,  B. Austin,  R. Baer,  J. Baker,  G. J. O. Beran,  
 K. Brandhorst,  S. T. Brown,  E. F. C. Byrd,  Arup K. Chakraborty,  
 G. K. L. Chan,  Chun-Min Chang,  Yunqing Chen,  C.-L. Cheng,  
 Siu Hung Chien,  D. M. Chipman,  D. L. Crittenden,  H. Dachsel,  
 R. J. Doerksen,  A. D. Dutoi,  R. G. Edgar,  J. Fosso-Tande,  
 L. Fusti-Molnar,  D. Ghosh,  A. Ghysels,  A. Golubeva-Zadorozhnaya,  
 J. Gonthier,  M. S. Gordon,  S. R. Gwaltney,  G. Hawkins,  J. E. Herr,  
 A. Heyden,  S. Hirata,  E. G. Hohenstein,  G. Kedziora,  F. J. Keil,  
 C. Kelley,  Jihan Kim,  R. A. King,  R. Z. Khaliullin,  P. P. Korambath,  
 W. Kurlancheek,  A. Laurent,  A. M. Lee,  M. S. Lee,  S. V. Levchenko,  
 Ching Yeh Lin,  D. Liotard,  E. Livshits,  R. C. Lochan,  I. Lotan,  
 L. A. Martinez-Martinez,  P. E. Maslen,  N. Nair,  D. P. O'Neill,  
 D. Neuhauser,  E. Neuscamman,  C. M. Oana,  R. Olivares-Amaya,  R. Olson,  
 T. M. Perrine,  B. Peters,  P. A. Pieniazek,  A. Prociuk,  Y. M. Rhee,  
 J. Ritchie,  M. A. Rohrdanz,  E. Rosta,  N. J. Russ,  H. F. Schaefer III,  
 M. W. Schmidt,  N. E. Schultz,  S. Sharma,  N. Shenvi,  C. D. Sherrill,  
 A. C. Simmonett,  A. Sodt,  T. Stein,  D. Stuck,  K. S. Thanthiriwatte,  
 V. Vanovschi,  L. Vogt,  Tao Wang,  A. Warshel,  M. A. Watson,  
 C. F. Williams,  Q. Wu,  X. Xu,  Jun Yang,  W. Zhang,  Yan Zhao

   Please cite Q-Chem as follows:
  "Software for the frontiers of quantum chemistry:
   An overview of developments in the Q-Chem 5 package"
   J. Chem. Phys. 155, 084801 (2021)
   https://doi.org/10.1063/5.0055522 (open access)

 Q-Chem 6.1.1 for Intel X86 EM64T Linux

 Parts of Q-Chem use Armadillo 9.900.5 (Nocturnal Misbehaviour).
 http://arma.sourceforge.net/

 Q-Chem begins on Sun Mar 17 17:07:02 2024  

 Host: iqmol
0

     Scratch files written to /aimm/scratch/qchem8851//
 Jan1824 |scratch|qcdevops|jenkins|workspace|build_RNUM 6466   
 Processing $rem in /opt/qchem/qc611/config/preferences:
 Processing $rem in /home/epif/.qchemrc:

 Checking the input file for inconsistencies... 	...done.

--------------------------------------------------------------
User input:
--------------------------------------------------------------

$molecule
read
$end

$rem
BASIS  =  6-31+G*
GUI  =  2
JOB_TYPE  =  Frequency
METHOD  =  wB97XD
SCF_CONVERGENCE  =  8
$end

--------------------------------------------------------------
 ----------------------------------------------------------------
             Standard Nuclear Orientation (Angstroms)
    I     Atom           X                Y                Z
 ----------------------------------------------------------------
    1      O       0.0000000000     0.0000000000    -1.1647637829
    2      C       0.0000000000     0.0000000000     0.0000000002
    3      O       0.0000000000     0.0000000000     1.1647637827
 ----------------------------------------------------------------
 Molecular Point Group                 D*h   NOp =***
 Largest Abelian Subgroup              D2h   NOp =  1
 Nuclear Repulsion Energy =          58.15309915 hartrees
 There are       11 alpha and       11 beta electrons
 Requested basis set is 6-31+G(d)
 There are 15 shells and 57 basis functions

 Total QAlloc Memory Limit   8000 MB
 Mega-Array Size       188 MB
 MEM_STATIC part       192 MB


                       Distance Matrix (Angstroms)
             O (  1)   C (  2)
   C (  2)  1.164764
   O (  3)  2.329528  1.164764
 
 A cutoff of  1.0D-12 yielded    119 shell pairs
 There are      1751 function pairs
 Smallest overlap matrix eigenvalue = 1.02E-03
 Guess from superposition of atomic densities
 Warning:  Energy on first SCF cycle will be non-variational
 SAD guess density has 22.000000 electrons

 -----------------------------------------------------------------------
  General SCF calculation program by
  Eric Jon Sundstrom, Paul Horn, Yuezhi Mao, Dmitri Zuev, Alec White,
  David Stuck, Shaama M.S., Shane Yost, Joonho Lee, David Small,
  Daniel Levine, Susi Lehtola, Hugh Burton, Evgeny Epifanovsky,
  Bang C. Huynh
 -----------------------------------------------------------------------
 Exchange:     0.2220 Hartree-Fock + 1.0000 wB97X-D + LR-HF
 Correlation:  1.0000 wB97X-D
 Using SG-2 standard quadrature grid
 Dispersion:   Grimme D
 A restricted SCF calculation will be
 performed using DIIS
 SCF converges when DIIS error is below 1.0e-08
 ---------------------------------------
  Cycle       Energy         DIIS error
 ---------------------------------------
    1    -189.0103547394      1.00e-01  
    2    -188.4261184642      1.74e-02  
    3    -188.3785717788      2.31e-02  
    4    -188.5234189117      7.52e-04  
    5    -188.5236126389      2.46e-04  
    6    -188.5236333785      5.15e-05  
    7    -188.5236345215      5.51e-06  
    8    -188.5236345449      5.65e-07  
    9    -188.5236345451      6.71e-08  
   10    -188.5236345452      9.20e-09  Convergence criterion met
 ---------------------------------------
 SCF time:   CPU 1.99s  wall 2.00s 
 SCF   energy =  -188.52363455
 Total energy =  -188.52363455
 
 --------------------------------------------------------------
 
                    Orbital Energies (a.u.)
 --------------------------------------------------------------
 
 Alpha MOs
 -- Occupied --
-19.3706 -19.3706 -10.5081  -1.2785  -1.2348  -0.6655  -0.6182  -0.6177
 -0.6177  -0.4662  -0.4662
 -- Virtual --
  0.0488   0.0929   0.0929   0.1031   0.1082   0.1082   0.2006   0.2540
  0.2686   0.2686   0.3159   0.3312   0.3312   0.3637   0.4166   0.7502
  0.7502   0.8143   0.9645   1.1133   1.1843   1.1843   1.2117   1.3100
  1.3100   1.3742   1.4613   1.4614   1.4938   1.4938   1.5397   1.8028
  1.8028   2.1076   2.1077   2.1940   2.2098   2.2098   2.9059   3.0664
  3.0664   3.3519   3.3956   4.1192   4.6483   4.8662
 --------------------------------------------------------------
 
          Ground-State Mulliken Net Atomic Charges

     Atom                 Charge (a.u.)
  ----------------------------------------
      1 O                    -0.374443
      2 C                     0.748886
      3 O                    -0.374443
  ----------------------------------------
  Sum of atomic charges =     0.000000

 -----------------------------------------------------------------
                    Cartesian Multipole Moments
 -----------------------------------------------------------------
    Charge (ESU x 10^10)
                 0.0000
    Dipole Moment (Debye)
         X      -0.0000      Y       0.0000      Z      -0.0000
       Tot       0.0000
    Quadrupole Moments (Debye-Ang)
        XX     -14.7840     XY      -0.0000     YY     -14.7840
        XZ      -0.0000     YZ      -0.0000     ZZ     -19.6497
    Octopole Moments (Debye-Ang^2)
       XXX      -0.0000    XXY      -0.0000    XYY      -0.0000
       YYY      -0.0000    XXZ       0.0000    XYZ       0.0000
       YYZ       0.0000    XZZ       0.0000    YZZ       0.0000
       ZZZ      -0.0000
    Hexadecapole Moments (Debye-Ang^3)
      XXXX     -11.6931   XXXY      -0.0000   XXYY      -3.8977
      XYYY      -0.0000   YYYY     -11.6931   XXXZ      -0.0000
      XXYZ      -0.0000   XYYZ      -0.0000   YYYZ      -0.0000
      XXZZ     -19.2155   XYZZ       0.0000   YYZZ     -19.2155
      XZZZ      -0.0000   YZZZ      -0.0000   ZZZZ    -104.9097
 -----------------------------------------------------------------
 Calculating MO derivatives via CPSCF
    1     0    12    0.0767647  
    2     0    12    0.0167571  
    3     0    12    0.0029858  
    4     0    12    0.0003871  
    5     0    12    0.0000592  
    6     8     4    0.0000063  
    7    12     0    0.0000006  Converged
 Polarizability Matrix (a.u.)
            1           2           3
    1  -9.0876432  -0.0000000  -0.0000000
    2  -0.0000000  -9.0876432  -0.0000000
    3  -0.0000000  -0.0000000 -25.9786761
 Calculating analytic Hessian of the SCF energy
atom: 0 element: 8
atom: 1 element: 6
atom: 2 element: 8
 
 Direct stationary perturbation theory relativistic correction:
 
 rels  =       0.069598006202
 relv  =      -0.274756449952
 rel2e =       0.000000000000
 E_rel =      -0.205158443751
 
 **********************************************************************
 **                                                                  **
 **                       VIBRATIONAL ANALYSIS                       **
 **                       --------------------                       **
 **                                                                  **
 **        VIBRATIONAL FREQUENCIES (CM**-1) AND NORMAL MODES         **
 **     FORCE CONSTANTS (mDYN/ANGSTROM) AND REDUCED MASSES (AMU)     **
 **                  INFRARED INTENSITIES (KM/MOL)                   **
 **                                                                  **
 **********************************************************************
 

 Mode:                 1                      2                      3
 Frequency:       662.75                 662.75                1394.82
 Force Cnst:      3.3326                 3.3326                18.3345
 Red. Mass:      12.8774                12.8774                15.9949
 IR Active:          YES                    YES                    YES
 IR Intens:       36.144                 36.144                  0.000
 Raman Active:       YES                    YES                    YES
               X      Y      Z        X      Y      Z        X      Y      Z
 O         -0.017 -0.331 -0.000   -0.331  0.017 -0.000   -0.000 -0.000  0.707
 C          0.046  0.882  0.000    0.882 -0.046  0.000    0.000  0.000 -0.000
 O         -0.017 -0.331  0.000   -0.331  0.017  0.000   -0.000 -0.000 -0.707
 TransDip   0.010  0.192  0.000    0.192 -0.010  0.000    0.000  0.000  0.000

 Mode:                 4
 Frequency:      2458.29
 Force Cnst:     45.8505
 Red. Mass:      12.8774
 IR Active:          YES
 IR Intens:      715.895
 Raman Active:       YES
               X      Y      Z        X      Y      Z        X      Y      Z
 O          0.000  0.000 -0.331
 C         -0.000 -0.000  0.883
 O          0.000  0.000 -0.331
 TransDip  -0.000  0.000  0.857

 STANDARD THERMODYNAMIC QUANTITIES AT   298.15 K  AND     1.00 ATM

   This Molecule has  0 Imaginary Frequencies
   Zero point vibrational energy:        7.403 kcal/mol

   Atom    1 Element O  Has Mass   15.99491
   Atom    2 Element C  Has Mass   12.00000
   Atom    3 Element O  Has Mass   15.99491
   Molecular Mass:    43.989820 amu
   Principal axes and moments of inertia in amu*Bohr^2:
                             1           2           3
    Eigenvalues --        0.00000   154.98342   154.98342
          X               0.00000     0.00000     1.00000
          Y               0.00000     1.00000     0.00000
          Z               1.00000     0.00000     0.00000
   Rotational Symmetry Number is   2
   The Molecule is a Symmetric Top
   Translational Enthalpy:        0.889 kcal/mol
   Rotational Enthalpy:           0.592 kcal/mol
   Vibrational Enthalpy:          7.569 kcal/mol
   gas constant (RT):             0.592 kcal/mol
   Translational Entropy:        37.270  cal/mol.K
   Rotational Entropy:           13.088  cal/mol.K
   Vibrational Entropy:           0.725  cal/mol.K

   Total Enthalpy:                9.643 kcal/mol
   Total Entropy:                51.084  cal/mol.K

   Quasi-RRHO corrections using alpha = 4, and omega = 100 cm^-1
   QRRHO-Vib. Enthalpy:           7.569 kcal/mol
   QRRHO-Vib. Entropy:            0.726  cal/mol.K
   QRRHO-Total Enthalpy:          9.642 kcal/mol
   QRRHO-Total Entropy:          51.085  cal/mol.K
 Total job time:  33.72s(wall), 33.74s(cpu) 
 Sun Mar 17 17:07:36 2024

        *************************************************************
        *                                                           *
        *  Thank you very much for using Q-Chem.  Have a nice day.  *
        *                                                           *
        *************************************************************


